LAMMPS atomic data generated from IMD config file imd.config
128 atoms
1 atom types
0 112.0 xlo xhi
0 112.0 ylo yhi
0 112.0 zlo zhi
0.0 0.0 0.0 xy xz yz

 Masses

1 39.948

 Atoms

    1	 1	0.35307400	0.54285100	0.44697800
    2	 1	0.79272400	0.91071500	3.55641200
    3	 1	0.91505000	0.23287200	6.36662600
    4	 1	0.35361600	0.58644600	9.04857400
    5	 1	0.54184900	3.64280700	0.53983600
    6	 1	0.83188200	3.53549000	3.23474100
    7	 1	1.04277600	3.87325500	6.78711800
    8	 1	0.99450100	3.72475000	9.27962300
    9	 1	0.39058100	6.12066600	0.27478400
   10	 1	0.59109000	6.19989500	3.58033100
   11	 1	1.02435700	6.43079800	6.49953600
   12	 1	0.77340200	6.31093500	9.15756100
   13	 1	0.50302400	9.15738900	0.72726900
   14	 1	0.46680100	8.90204100	3.25238300
   15	 1	1.16408300	8.97343100	6.42738600
   16	 1	0.80373200	8.98372000	9.11013200
   17	 1	1.82019700	2.01350100	1.67631700
   18	 1	1.99325000	2.30039700	5.14363400
   19	 1	2.11427400	1.93331800	7.90614900
   20	 1	1.79386000	1.94574200	10.56070800
   21	 1	2.11769900	4.97353100	1.79229100
   22	 1	2.20992900	4.93452300	4.69961500
   23	 1	2.53476600	5.18259800	8.15435900
   24	 1	2.33731800	5.23152200	10.62178200
   25	 1	1.76768900	7.53228800	1.90445900
   26	 1	2.10523300	7.64297000	4.68551300
   27	 1	2.50604300	7.60593000	8.04283300
   28	 1	2.02692900	7.53730600	10.69795300
   29	 1	1.84659200	10.63177600	1.96512900
   30	 1	2.03372100	10.48289400	4.64864500
   31	 1	2.50002200	10.26054200	8.08927000
   32	 1	1.95519400	10.48929000	10.37812600
   33	 1	3.49072100	0.57234200	0.54573400
   34	 1	3.24273800	0.79005600	3.29504800
   35	 1	3.39781300	0.38290200	6.21228400
   36	 1	3.80603200	0.59184700	9.36018300
   37	 1	3.22887900	3.32300300	0.43326200
   38	 1	3.22603600	3.21551200	3.33989100
   39	 1	3.40328600	3.82431600	6.54276900
   40	 1	3.59525400	3.35363100	9.16406500
   41	 1	3.79331300	6.40249300	0.79826500
   42	 1	3.46210200	6.40267200	3.24750100
   43	 1	3.41939100	6.34088900	6.21262400
   44	 1	4.03766800	6.60440700	9.59112100
   45	 1	3.40408800	9.13853700	0.69905000
   46	 1	3.17097800	8.93855600	3.03125600
   47	 1	3.53338300	8.98456800	6.26884600
   48	 1	3.85721200	9.00694200	9.48504800
   49	 1	4.65039500	2.15909900	1.87614100
   50	 1	4.37426600	2.25327000	5.05086700
   51	 1	4.92450200	1.88836300	7.59442800
   52	 1	5.11342000	2.20956600	10.80598400
   53	 1	4.71733700	4.66095600	2.08147500
   54	 1	4.62418400	4.99810300	4.60561600
   55	 1	4.86938200	5.23808100	7.83745800
   56	 1	4.77740300	4.69880600	10.71278400
   57	 1	5.19981700	7.90253300	2.02635500
   58	 1	4.90181700	7.88258700	4.60899900
   59	 1	4.91214200	7.71412300	7.75222600
   60	 1	5.38433200	7.89851500	10.87472200
   61	 1	4.82302100	10.39509000	2.09204000
   62	 1	4.57581600	10.17871500	4.45889700
   63	 1	4.83711500	10.36999700	7.80811800
   64	 1	5.20376100	10.47977800	10.90737400
   65	 1	6.52529600	0.76317600	1.15052000
   66	 1	5.92777700	0.81251500	3.40474800
   67	 1	5.86343000	0.29285000	5.96399300
   68	 1	6.17315000	0.57622100	9.23125400
   69	 1	6.53533900	3.37218700	1.02702900
   70	 1	6.08237600	3.30542000	3.55958300
   71	 1	5.98927000	3.72442300	6.25427900
   72	 1	6.17694400	3.46567900	8.88063600
   73	 1	6.46881400	6.09065600	0.57559100
   74	 1	6.16631900	6.29196400	3.37478200
   75	 1	5.87989300	6.38228300	6.07733800
   76	 1	6.45062000	6.42230400	9.41547900
   77	 1	6.71430000	9.43048500	1.16548300
   78	 1	6.44757400	9.24849700	3.42591900
   79	 1	6.23388300	9.08587900	5.95077200
   80	 1	6.32514200	9.16120000	9.16783600
   81	 1	7.93933800	2.18774200	2.65457500
   82	 1	7.63892500	1.90126500	4.95442800
   83	 1	7.36378100	1.86472700	7.38692300
   84	 1	7.93887300	1.92154700	10.32685500
   85	 1	7.78936400	4.93710800	2.39620000
   86	 1	7.53774900	4.83152400	4.84844400
   87	 1	7.36931200	5.08079400	7.51502200
   88	 1	7.62256000	4.59845200	10.37246400
   89	 1	7.72345400	7.53409900	2.02855600
   90	 1	7.51521900	7.69452600	4.69132100
   91	 1	7.45144100	7.67712500	7.42094500
   92	 1	7.99292900	7.99831900	10.79075400
   93	 1	8.01369800	10.76962300	2.63217600
   94	 1	8.00958200	10.71549300	4.92362100
   95	 1	7.51336000	10.43041100	7.30117100
   96	 1	7.92840900	10.58916100	10.52343700
   97	 1	9.23189200	0.67287000	0.81032900
   98	 1	9.62580000	1.02295800	3.82763000
   99	 1	9.53419900	0.90550500	6.36743700
  100	 1	9.20456000	0.69249800	8.69456600
  101	 1	8.96766900	3.51861000	0.66765900
  102	 1	9.25740700	3.64763200	3.79114300
  103	 1	8.94760400	3.56041500	6.18060400
  104	 1	8.67929100	3.38961600	8.60936000
  105	 1	9.03613600	5.91365300	0.59899900
  106	 1	9.35534900	6.22134000	3.74806000
  107	 1	9.00969700	6.29753100	6.27061100
  108	 1	8.90050100	6.44618400	9.20434600
  109	 1	9.12839800	9.41206800	1.08652700
  110	 1	9.15016100	8.85848900	3.45732600
  111	 1	9.03543100	9.05550600	6.14911800
  112	 1	8.88515300	8.97443300	8.76294600
  113	 1	10.60280900	2.14096900	2.01514100
  114	 1	10.76414400	2.45443500	5.10555600
  115	 1	10.75981000	2.50912300	7.75271500
  116	 1	10.40955200	2.41069300	10.25809200
  117	 1	10.51502400	4.86354700	2.21963500
  118	 1	10.78341400	5.00280000	5.33222300
  119	 1	10.29847400	5.04999200	7.71616400
  120	 1	10.26337500	4.82764400	10.18471700
  121	 1	10.38580300	7.46559400	1.98162600
  122	 1	10.71065400	7.83658500	5.10816300
  123	 1	10.47581500	7.64229200	7.60873400
  124	 1	10.29338500	7.88024100	10.42922000
  125	 1	10.52092200	10.74034600	2.31205700
  126	 1	10.69368500	10.22806600	4.84054400
  127	 1	10.55870300	10.14684400	7.44944700
  128	 1	10.34419800	10.22742500	10.29066500
