ITEM: TIMESTEP
0
ITEM: NUMBER OF ATOMS
512
ITEM: BOX BOUNDS pp pp pp
0 14
0 14
0 14
ITEM: ATOMS id type x y z fx fy fz 
1 1   0.0000000000e+00   0.0000000000e+00   0.0000000000e+00   6.6613381478e-16  -2.2204460493e-16  -8.8817841970e-16 
2 1   0.0000000000e+00   1.7500000000e+00   1.7500000000e+00   2.4424906542e-15   3.4694469520e-16  -1.6306400674e-16 
3 1   1.7500000000e+00   0.0000000000e+00   1.7500000000e+00   4.1633363423e-16   4.4582393333e-16   2.2898349883e-16 
4 1   1.7500000000e+00   1.7500000000e+00   0.0000000000e+00   5.6898930012e-16  -4.5059442288e-16   3.9497485144e-16 
5 1   8.7500000000e-01   8.7500000000e-01   8.7500000000e-01   6.6613381478e-16   5.5511151231e-17   4.2327252814e-16 
6 1   8.7500000000e-01   2.6250000000e+00   2.6250000000e+00   4.4408920985e-16   1.3170887991e-15   7.4972580227e-17 
7 1   2.6250000000e+00   8.7500000000e-01   2.6250000000e+00   1.0772632786e-15   4.4408920985e-16  -9.3203439758e-16 
8 1   2.6250000000e+00   2.6250000000e+00   8.7500000000e-01   1.4181364416e-15   1.0513508467e-15   4.4408920985e-16 
9 1   3.5000000000e+00   0.0000000000e+00   0.0000000000e+00  -9.1853608053e-16   2.2204460493e-16   8.8817841970e-16 
10 1   3.5000000000e+00   1.7500000000e+00   1.7500000000e+00   1.7659484985e-15   2.2204460493e-16  -4.8397429727e-16 
13 1   4.3750000000e+00   8.7500000000e-01   8.7500000000e-01   1.2834785318e-15  -1.1102230246e-15  -4.4408920985e-16 
14 1   4.3750000000e+00   2.6250000000e+00   2.6250000000e+00   1.4170522394e-15   1.4831885720e-16   1.6387715837e-16 
33 1   0.0000000000e+00   3.5000000000e+00   0.0000000000e+00   2.2204460493e-16  -2.5218542532e-16   7.7715611724e-16 
35 1   1.7500000000e+00   3.5000000000e+00   1.7500000000e+00   7.6327832943e-16   4.5167862506e-16   4.8747084928e-16 
37 1   8.7500000000e-01   4.3750000000e+00   8.7500000000e-01  -8.8817841970e-16   1.3147035544e-15  -4.4408920985e-16 
39 1   2.6250000000e+00   4.3750000000e+00   2.6250000000e+00   6.5399075044e-16   9.7471130559e-16   2.0551052179e-16 
41 1   3.5000000000e+00   3.5000000000e+00   0.0000000000e+00   1.3470127791e-15   1.1526966447e-15   4.4398078963e-16 
45 1   4.3750000000e+00   4.3750000000e+00   8.7500000000e-01   9.2363183074e-16   1.8149544367e-15  -4.4408920985e-16 
129 1   0.0000000000e+00   0.0000000000e+00   3.5000000000e+00   2.2204460493e-16   6.3837823916e-16   2.2204460493e-16 
132 1   1.7500000000e+00   1.7500000000e+00   3.5000000000e+00   1.0269562978e-15   5.0133508456e-16   9.8320874012e-16 
133 1   8.7500000000e-01   8.7500000000e-01   4.3750000000e+00  -1.1102230246e-15  -4.4408920985e-16   1.3183898417e-15 
136 1   2.6250000000e+00   2.6250000000e+00   4.3750000000e+00   1.4398204851e-16   4.6842954862e-16   1.4069149491e-15 
137 1   3.5000000000e+00   0.0000000000e+00   3.5000000000e+00   1.1804793254e-15   4.4403499974e-16   1.2025699447e-15 
141 1   4.3750000000e+00   8.7500000000e-01   4.3750000000e+00   1.3106920063e-15  -4.4408920985e-16   1.9058376838e-15 
161 1   0.0000000000e+00   3.5000000000e+00   3.5000000000e+00   4.4408920985e-16   5.6985666186e-16   1.1247242287e-15 
165 1   8.7500000000e-01   4.3750000000e+00   4.3750000000e+00  -4.4408920985e-16   1.3250305800e-15   1.8500012720e-15 
169 1   3.5000000000e+00   3.5000000000e+00   3.5000000000e+00   6.8218000693e-16   1.0690097895e-15   2.3581397252e-16 
173 1   4.3750000000e+00   4.3750000000e+00   4.3750000000e+00   1.0863705768e-16   8.7104802537e-16   6.2319940874e-16 
11 1   5.2500000000e+00   0.0000000000e+00   1.7500000000e+00  -5.6378512969e-16   0.0000000000e+00   4.2327252814e-16 
12 1   5.2500000000e+00   1.7500000000e+00   0.0000000000e+00   1.3183898417e-16   4.7184478547e-16   8.8817841970e-16 
15 1   6.1250000000e+00   8.7500000000e-01   2.6250000000e+00   4.2893748449e-17  -4.4408920985e-16  -1.3314002678e-16 
16 1   6.1250000000e+00   2.6250000000e+00   8.7500000000e-01   4.7001519430e-16   7.9537071374e-16   0.0000000000e+00 
17 1   7.0000000000e+00   0.0000000000e+00   0.0000000000e+00   2.2204460493e-16   4.4408920985e-16   6.3837823916e-16 
18 1   7.0000000000e+00   1.7500000000e+00   1.7500000000e+00   4.7829578839e-16   1.2490009027e-16  -7.3639011555e-16 
19 1   8.7500000000e+00   0.0000000000e+00   1.7500000000e+00  -4.4885969941e-17   0.0000000000e+00   7.1470607210e-16 
20 1   8.7500000000e+00   1.7500000000e+00   0.0000000000e+00   2.3787395664e-16   2.2204460493e-16   0.0000000000e+00 
21 1   7.8750000000e+00   8.7500000000e-01   8.7500000000e-01   6.6266436782e-16  -4.4408920985e-16  -4.4408920985e-16 
22 1   7.8750000000e+00   2.6250000000e+00   2.6250000000e+00   3.2588406799e-16   7.8062556419e-16   7.5704416694e-16 
43 1   5.2500000000e+00   3.5000000000e+00   1.7500000000e+00   1.2348385118e-15   1.7607443281e-15   3.1918911958e-16 
47 1   6.1250000000e+00   4.3750000000e+00   2.6250000000e+00   1.0832941532e-15   1.9392040057e-15   1.7199783264e-15 
49 1   7.0000000000e+00   3.5000000000e+00   0.0000000000e+00   1.0709206959e-16  -5.0306980803e-17  -8.8823262981e-16 
51 1   8.7500000000e+00   3.5000000000e+00   1.7500000000e+00   1.9896194067e-15   5.1694759584e-16   3.8857805862e-16 
53 1   7.8750000000e+00   4.3750000000e+00   8.7500000000e-01   3.9356538861e-16   6.1799523832e-16   8.8817841970e-16 
140 1   5.2500000000e+00   1.7500000000e+00   3.5000000000e+00   1.5940346916e-15   5.8286708793e-16   7.4143165565e-16 
144 1   6.1250000000e+00   2.6250000000e+00   4.3750000000e+00   1.1093150053e-15   4.9873299934e-16   5.6196909105e-16 
145 1   7.0000000000e+00   0.0000000000e+00   3.5000000000e+00   1.3484764520e-16  -8.8817841970e-16   5.8243340706e-16 
148 1   8.7500000000e+00   1.7500000000e+00   3.5000000000e+00   2.2656572798e-15   6.8001160258e-16   8.6400071125e-16 
149 1   7.8750000000e+00   8.7500000000e-01   4.3750000000e+00   1.9651164376e-16   8.8817841970e-16   6.4962683670e-16 
177 1   7.0000000000e+00   3.5000000000e+00   3.5000000000e+00   5.1575497345e-16   1.4849232954e-15   1.0407798755e-15 
181 1   7.8750000000e+00   4.3750000000e+00   4.3750000000e+00   5.4622105450e-16   1.4602034859e-15   1.3099330648e-15 
23 1   9.6250000000e+00   8.7500000000e-01   2.6250000000e+00  -1.5699247458e-16   0.0000000000e+00   5.7449162615e-17 
24 1   9.6250000000e+00   2.6250000000e+00   8.7500000000e-01   3.9942008034e-16   1.6738726290e-16   8.8817841970e-16 
25 1   1.0500000000e+01   0.0000000000e+00   0.0000000000e+00  -4.2500725161e-16   4.4387236942e-16   7.4929212140e-16 
26 1   1.0500000000e+01   1.7500000000e+00   1.7500000000e+00   1.7876325420e-15   4.8577678338e-16   2.7840956537e-16 
27 1   1.2250000000e+01   0.0000000000e+00   1.7500000000e+00  -2.2204460493e-16   1.3877787808e-15   3.3306690739e-16 
28 1   1.2250000000e+01   1.7500000000e+00   0.0000000000e+00   0.0000000000e+00  -2.3071822230e-16   9.9789967956e-16 
29 1   1.1375000000e+01   8.7500000000e-01   8.7500000000e-01   9.7144514655e-16   2.2204460493e-16   3.3306690739e-16 
30 1   1.1375000000e+01   2.6250000000e+00   2.6250000000e+00   9.8532293435e-16   1.3846345945e-15   6.6319291638e-16 
31 1   1.3125000000e+01   8.7500000000e-01   2.6250000000e+00  -6.6613381478e-16  -1.0547118734e-15   1.5751289162e-15 
32 1   1.3125000000e+01   2.6250000000e+00   8.7500000000e-01   4.4408920985e-16   8.3375147064e-16  -6.1062266354e-16 
55 1   9.6250000000e+00   4.3750000000e+00   2.6250000000e+00   5.5467783144e-16  -1.6267098345e-16  -9.1940344227e-17 
57 1   1.0500000000e+01   3.5000000000e+00   0.0000000000e+00   1.2628786905e-15  -3.3182007489e-16  -1.3321049992e-15 
59 1   1.2250000000e+01   3.5000000000e+00   1.7500000000e+00   2.2204460493e-16   1.3433264917e-15  -2.7927692711e-16 
61 1   1.1375000000e+01   4.3750000000e+00   8.7500000000e-01   2.2204460493e-16  -3.6305864998e-16   0.0000000000e+00 
63 1   1.3125000000e+01   4.3750000000e+00   2.6250000000e+00   4.4408920985e-16   1.0900026541e-15   6.2818673874e-16 
152 1   9.6250000000e+00   2.6250000000e+00   4.3750000000e+00   1.2923689896e-16  -1.6829528222e-16   5.8372089714e-16 
153 1   1.0500000000e+01   0.0000000000e+00   3.5000000000e+00   1.4571677198e-15  -1.3320507891e-15  -2.5397435890e-16 
156 1   1.2250000000e+01   1.7500000000e+00   3.5000000000e+00   0.0000000000e+00   3.3306690739e-16   2.1415703412e-16 
157 1   1.1375000000e+01   8.7500000000e-01   4.3750000000e+00   1.3877787808e-16  -8.6736173799e-19  -2.9619048100e-16 
160 1   1.3125000000e+01   2.6250000000e+00   4.3750000000e+00  -4.4408920985e-16   9.1354875054e-16   1.0349251837e-15 
185 1   1.0500000000e+01   3.5000000000e+00   3.5000000000e+00   5.9587751400e-16   4.5056731783e-16  -6.0409034545e-16 
189 1   1.1375000000e+01   4.3750000000e+00   4.3750000000e+00   1.1796119637e-15   1.5475359709e-15   6.6580855412e-16 
34 1   0.0000000000e+00   5.2500000000e+00   1.7500000000e+00   0.0000000000e+00  -2.7755575616e-17   4.2327252814e-16 
36 1   1.7500000000e+00   5.2500000000e+00   0.0000000000e+00   4.9960036108e-16  -5.2041704279e-17   8.8817841970e-16 
38 1   8.7500000000e-01   6.1250000000e+00   2.6250000000e+00  -4.4408920985e-16  -1.0486945513e-16  -1.6805133674e-16 
40 1   2.6250000000e+00   6.1250000000e+00   8.7500000000e-01   1.3964523982e-15   8.8729750543e-16   4.4408920985e-16 
42 1   3.5000000000e+00   5.2500000000e+00   1.7500000000e+00   1.2316536679e-16   3.0474212563e-16   2.6367796835e-16 
46 1   4.3750000000e+00   6.1250000000e+00   2.6250000000e+00   7.9081706461e-16  -1.3945550444e-16   1.1275702594e-15 
65 1   0.0000000000e+00   7.0000000000e+00   0.0000000000e+00   2.2204460493e-16   6.6613381478e-16   4.7184478547e-16 
66 1   0.0000000000e+00   8.7500000000e+00   1.7500000000e+00   4.4408920985e-16  -6.2233204701e-17   2.8449465006e-16 
67 1   1.7500000000e+00   7.0000000000e+00   1.7500000000e+00  -5.5511151231e-17   2.9884677632e-16  -4.1720099597e-16 
68 1   1.7500000000e+00   8.7500000000e+00   0.0000000000e+00   6.6613381478e-16  -6.3967928177e-17   0.0000000000e+00 
69 1   8.7500000000e-01   7.8750000000e+00   8.7500000000e-01  -2.2204460493e-16  -1.7000290065e-16   2.2204460493e-16 
71 1   2.6250000000e+00   7.8750000000e+00   2.6250000000e+00   7.3639011555e-16   4.7448752826e-16  -2.9766770646e-16 
73 1   3.5000000000e+00   7.0000000000e+00   0.0000000000e+00   1.1535911115e-15   1.2401104449e-15  -4.4414341996e-16 
74 1   3.5000000000e+00   8.7500000000e+00   1.7500000000e+00   1.3062467774e-15   1.2317620882e-15   3.7470027081e-16 
77 1   4.3750000000e+00   7.8750000000e+00   8.7500000000e-01   8.0848956002e-16  -2.1719280020e-16   8.8817841970e-16 
164 1   1.7500000000e+00   5.2500000000e+00   3.5000000000e+00   3.3306690739e-16   1.6037247485e-15   3.8147653439e-16 
168 1   2.6250000000e+00   6.1250000000e+00   4.3750000000e+00   8.1532003371e-17   1.3552662681e-15   3.6312641262e-16 
193 1   0.0000000000e+00   7.0000000000e+00   3.5000000000e+00  -8.8817841970e-16   5.0737951167e-16   6.7350638955e-16 
196 1   1.7500000000e+00   8.7500000000e+00   3.5000000000e+00   8.1878948066e-16   1.7478152172e-15   1.0825758692e-15 
197 1   8.7500000000e-01   7.8750000000e+00   4.3750000000e+00   8.8817841970e-16  -2.0317948712e-16   9.7336960540e-16 
201 1   3.5000000000e+00   7.0000000000e+00   3.5000000000e+00   6.5138866523e-16   1.2574441271e-15   9.5361002081e-16 
205 1   4.3750000000e+00   7.8750000000e+00   4.3750000000e+00   1.5989813640e-15   5.4231792668e-16   1.4867664391e-15 
44 1   5.2500000000e+00   5.2500000000e+00   0.0000000000e+00   2.9514693640e-16   1.1259981662e-15   4.4408920985e-16 
48 1   6.1250000000e+00   6.1250000000e+00   8.7500000000e-01   1.3066669058e-15   5.4116596187e-16   8.8817841970e-16 
50 1   7.0000000000e+00   5.2500000000e+00   1.7500000000e+00   2.0627081857e-15   1.4074028401e-15   4.4408920985e-16 
52 1   8.7500000000e+00   5.2500000000e+00   0.0000000000e+00   5.4394422994e-16   3.9841719333e-16   0.0000000000e+00 
54 1   7.8750000000e+00   6.1250000000e+00   2.6250000000e+00   1.0862486041e-15  -8.0689036182e-16  -4.0158848469e-16 
75 1   5.2500000000e+00   7.0000000000e+00   1.7500000000e+00   1.5509241027e-15   1.8508415287e-15   6.5225602697e-16 
76 1   5.2500000000e+00   8.7500000000e+00   0.0000000000e+00   1.2213808524e-15   1.3991629036e-15  -8.8817841970e-16 
79 1   6.1250000000e+00   7.8750000000e+00   2.6250000000e+00   6.4290478323e-16   1.0153553345e-16  -6.4271504785e-16 
81 1   7.0000000000e+00   7.0000000000e+00   0.0000000000e+00   3.0498607112e-16   7.4658161597e-16  -6.6613381478e-16 
82 1   7.0000000000e+00   8.7500000000e+00   1.7500000000e+00   1.7524772866e-15   1.1653004950e-15   1.0547118734e-15 
83 1   8.7500000000e+00   7.0000000000e+00   1.7500000000e+00   1.6399642061e-15   1.9541931007e-15   6.8001160258e-16 
84 1   8.7500000000e+00   8.7500000000e+00   0.0000000000e+00  -8.9121418578e-17   1.5840193740e-16  -4.4408920985e-16 
85 1   7.8750000000e+00   7.8750000000e+00   8.7500000000e-01   1.1675502145e-16   1.8710618992e-16   6.6613381478e-16 
172 1   5.2500000000e+00   5.2500000000e+00   3.5000000000e+00   4.4238159143e-16   1.2991994633e-15  -9.5192950744e-16 
176 1   6.1250000000e+00   6.1250000000e+00   4.3750000000e+00   4.2128030665e-16   1.5651000461e-15   7.5492997270e-16 
180 1   8.7500000000e+00   5.2500000000e+00   3.5000000000e+00   8.9273206882e-16   1.2303526253e-15   5.6812193838e-16 
204 1   5.2500000000e+00   8.7500000000e+00   3.5000000000e+00   3.0242464349e-16   4.2067044292e-16   8.8817841970e-16 
209 1   7.0000000000e+00   7.0000000000e+00   3.5000000000e+00   1.2803072404e-16   2.1802492537e-15   2.2117724319e-16 
212 1   8.7500000000e+00   8.7500000000e+00   3.5000000000e+00  -6.0682795594e-16   4.5937646048e-16  -3.4087316303e-16 
213 1   7.8750000000e+00   7.8750000000e+00   4.3750000000e+00   2.6649689400e-16  -1.0151384941e-15   1.5547459153e-15 
56 1   9.6250000000e+00   6.1250000000e+00   8.7500000000e-01  -6.6483277217e-16   4.3361310636e-16   4.4408920985e-16 
58 1   1.0500000000e+01   5.2500000000e+00   1.7500000000e+00   1.4519635494e-15   8.3696341958e-16   2.7755575616e-17 
60 1   1.2250000000e+01   5.2500000000e+00   0.0000000000e+00   2.2204460493e-16   3.8857805862e-16  -2.2204460493e-16 
62 1   1.1375000000e+01   6.1250000000e+00   2.6250000000e+00   9.8532293435e-16   4.8467902868e-16  -2.2583931253e-16 
64 1   1.3125000000e+01   6.1250000000e+00   8.7500000000e-01   0.0000000000e+00   1.2559397966e-15   2.7755575616e-16 
87 1   9.6250000000e+00   7.8750000000e+00   2.6250000000e+00   5.4036636277e-16   1.0113844441e-15  -3.8857805862e-16 
89 1   1.0500000000e+01   7.0000000000e+00   0.0000000000e+00  -6.9388939039e-18   1.1309312861e-15  -8.8839526013e-16 
90 1   1.0500000000e+01   8.7500000000e+00   1.7500000000e+00   9.2374025096e-16   8.2243511047e-16   1.3877787808e-16 
91 1   1.2250000000e+01   7.0000000000e+00   1.7500000000e+00  -8.8817841970e-16   9.0308619957e-16  -7.5286998857e-16 
92 1   1.2250000000e+01   8.7500000000e+00   0.0000000000e+00   0.0000000000e+00  -5.1824863845e-17   2.2204460493e-16 
93 1   1.1375000000e+01   7.8750000000e+00   8.7500000000e-01   8.3266726847e-17  -5.1747614440e-16   8.8817841970e-16 
95 1   1.3125000000e+01   7.8750000000e+00   2.6250000000e+00  -8.8817841970e-16   4.6178881032e-16   1.0581813203e-15 
184 1   9.6250000000e+00   6.1250000000e+00   4.3750000000e+00   1.4354836764e-16  -4.8206339094e-17   1.0427314394e-16 
188 1   1.2250000000e+01   5.2500000000e+00   3.5000000000e+00  -2.2204460493e-16   1.1261201390e-15   1.0409425058e-15 
192 1   1.3125000000e+01   6.1250000000e+00   4.3750000000e+00   1.3322676296e-15   3.3987027602e-16   6.0327719383e-16 
217 1   1.0500000000e+01   7.0000000000e+00   3.5000000000e+00   1.8301332672e-16   1.2927755654e-15   3.1829465279e-16 
220 1   1.2250000000e+01   8.7500000000e+00   3.5000000000e+00   0.0000000000e+00   9.2975757301e-16   5.1087606368e-16 
221 1   1.1375000000e+01   7.8750000000e+00   4.3750000000e+00  -1.3877787808e-17   3.2217067555e-16   1.3711362774e-15 
70 1   8.7500000000e-01   9.6250000000e+00   2.6250000000e+00   0.0000000000e+00  -2.4123498338e-16   1.7550522667e-17 
72 1   2.6250000000e+00   9.6250000000e+00   8.7500000000e-01  -7.6067624422e-16  -1.9762295099e-16   1.3322676296e-15 
78 1   4.3750000000e+00   9.6250000000e+00   2.6250000000e+00  -8.1163374632e-16   1.0538445117e-16  -4.2240516640e-16 
97 1   0.0000000000e+00   1.0500000000e+01   0.0000000000e+00   4.4408920985e-16  -8.6866278060e-16   9.1582557510e-16 
98 1   0.0000000000e+00   1.2250000000e+01   1.7500000000e+00   4.4408920985e-16   3.3306690739e-16  -1.9428902931e-16 
99 1   1.7500000000e+00   1.0500000000e+01   1.7500000000e+00   3.1918911958e-16   1.7054500173e-16  -3.0532488430e-16 
100 1   1.7500000000e+00   1.2250000000e+01   0.0000000000e+00   6.8001160258e-16  -6.6960326173e-16   3.3176586478e-16 
101 1   8.7500000000e-01   1.1375000000e+01   8.7500000000e-01   0.0000000000e+00   4.0419056990e-16   5.5511151231e-16 
102 1   8.7500000000e-01   1.3125000000e+01   2.6250000000e+00  -2.2204460493e-16  -1.6653345369e-16   9.5756735874e-16 
103 1   2.6250000000e+00   1.1375000000e+01   2.6250000000e+00   9.7144514655e-16   3.3312111750e-16   9.8151467422e-16 
104 1   2.6250000000e+00   1.3125000000e+01   8.7500000000e-01   1.0972125986e-15   6.6635065521e-16  -4.9960036108e-16 
105 1   3.5000000000e+00   1.0500000000e+01   0.0000000000e+00   4.8138576458e-17   1.1925952847e-15   4.4425184018e-16 
106 1   3.5000000000e+00   1.2250000000e+01   1.7500000000e+00   9.8315453001e-16   2.2204460493e-16  -4.3193259299e-16 
109 1   4.3750000000e+00   1.1375000000e+01   8.7500000000e-01  -5.1282762759e-17   1.2490009027e-16   0.0000000000e+00 
110 1   4.3750000000e+00   1.3125000000e+01   2.6250000000e+00   1.2261242369e-15   4.4408920985e-16   5.7354294924e-16 
200 1   2.6250000000e+00   9.6250000000e+00   4.3750000000e+00   4.3801767768e-16   2.2808903204e-16   8.3200319464e-16 
225 1   0.0000000000e+00   1.0500000000e+01   3.5000000000e+00  -1.3322676296e-15   1.7551064768e-15  -2.2746561579e-16 
228 1   1.7500000000e+00   1.2250000000e+01   3.5000000000e+00   7.0776717820e-16   2.2074356232e-16   1.9572559719e-16 
229 1   8.7500000000e-01   1.1375000000e+01   4.3750000000e+00   4.4408920985e-16   8.9338259013e-17   9.7158067182e-17 
232 1   2.6250000000e+00   1.3125000000e+01   4.3750000000e+00   9.9139446652e-16  -4.4387236942e-16   8.8151057634e-16 
233 1   3.5000000000e+00   1.0500000000e+01   3.5000000000e+00   7.3118594512e-16   1.5673091080e-15  -5.7652450522e-17 
237 1   4.3750000000e+00   1.1375000000e+01   4.3750000000e+00   9.0053832447e-16   8.6042284408e-16   6.7274744803e-16 
80 1   6.1250000000e+00   9.6250000000e+00   8.7500000000e-01   5.1137750718e-16   9.6624097612e-16   4.4408920985e-16 
86 1   7.8750000000e+00   9.6250000000e+00   2.6250000000e+00  -5.1652746750e-16   8.2052420414e-16  -3.2959746044e-17 
107 1   5.2500000000e+00   1.0500000000e+01   1.7500000000e+00   8.0571129196e-16   6.4444977133e-16   8.0491169285e-16 
108 1   5.2500000000e+00   1.2250000000e+01   0.0000000000e+00   2.9837243787e-16   4.4408920985e-16  -2.2204460493e-16 
111 1   6.1250000000e+00   1.1375000000e+01   2.6250000000e+00   7.8292949381e-16   1.1241008124e-15   4.7065216308e-16 
112 1   6.1250000000e+00   1.3125000000e+01   8.7500000000e-01   1.2143064332e-15   6.6613381478e-16   2.7755575616e-16 
113 1   7.0000000000e+00   1.0500000000e+01   0.0000000000e+00   6.7453638161e-16  -2.2030988145e-16  -8.8796157927e-16 
114 1   7.0000000000e+00   1.2250000000e+01   1.7500000000e+00   4.4013187192e-16   0.0000000000e+00  -7.3812483903e-16 
115 1   8.7500000000e+00   1.0500000000e+01   1.7500000000e+00   9.1018772380e-16   8.6302492930e-16   6.2450045135e-16 
116 1   8.7500000000e+00   1.2250000000e+01   0.0000000000e+00   1.0776969595e-16  -4.4408920985e-16  -4.4408920985e-16 
117 1   7.8750000000e+00   1.1375000000e+01   8.7500000000e-01   8.0552155658e-16   9.0205620751e-16   8.8817841970e-16 
118 1   7.8750000000e+00   1.3125000000e+01   2.6250000000e+00   5.4673605053e-16  -8.8817841970e-16   1.0034291106e-15 
208 1   6.1250000000e+00   9.6250000000e+00   4.3750000000e+00  -3.3400203176e-16   4.1850203858e-16  -3.0059505232e-17 
236 1   5.2500000000e+00   1.2250000000e+01   3.5000000000e+00   1.0785507687e-15  -2.2204460493e-16   9.4748427854e-16 
240 1   6.1250000000e+00   1.3125000000e+01   4.3750000000e+00   3.7976891597e-16   1.3322676296e-15   7.3511617800e-16 
241 1   7.0000000000e+00   1.0500000000e+01   3.5000000000e+00   1.3476633004e-16   5.4643789493e-16   4.2633539928e-16 
244 1   8.7500000000e+00   1.2250000000e+01   3.5000000000e+00   8.2659573630e-16  -2.2204460493e-16   4.8312048806e-16 
245 1   7.8750000000e+00   1.1375000000e+01   4.3750000000e+00  -7.5514681314e-17   1.5265566589e-16   1.3533553618e-15 
88 1   9.6250000000e+00   9.6250000000e+00   8.7500000000e-01   8.7083118494e-16   1.7863314994e-15   0.0000000000e+00 
94 1   1.1375000000e+01   9.6250000000e+00   2.6250000000e+00   9.5756735874e-16   1.0301004841e-15  -8.5271145613e-16 
96 1   1.3125000000e+01   9.6250000000e+00   8.7500000000e-01   1.7763568394e-15   4.5991856157e-16  -3.8859161115e-16 
119 1   9.6250000000e+00   1.1375000000e+01   2.6250000000e+00   9.4976110310e-16  -6.2450045135e-16  -6.4888144771e-16 
120 1   9.6250000000e+00   1.3125000000e+01   8.7500000000e-01   3.3480163086e-16   2.2203918391e-15  -5.5512506484e-16 
121 1   1.0500000000e+01   1.0500000000e+01   0.0000000000e+00   1.3348697148e-15   3.9361959872e-16   0.0000000000e+00 
122 1   1.0500000000e+01   1.2250000000e+01   1.7500000000e+00   9.4542429441e-17  -4.4387236942e-16   1.7864941297e-16 
123 1   1.2250000000e+01   1.0500000000e+01   1.7500000000e+00  -2.2204460493e-16   1.0347625534e-15  -3.4783916199e-16 
124 1   1.2250000000e+01   1.2250000000e+01   0.0000000000e+00   1.1102230246e-15   3.3306690739e-16   1.6861512186e-15 
125 1   1.1375000000e+01   1.1375000000e+01   8.7500000000e-01   2.2204460493e-16   1.5265566589e-16   1.3813819880e-15 
126 1   1.1375000000e+01   1.3125000000e+01   2.6250000000e+00   1.3183898417e-15  -4.4235448637e-16   1.0477729795e-15 
127 1   1.3125000000e+01   1.1375000000e+01   2.6250000000e+00   4.4408920985e-16   1.0338951917e-15   1.6601303665e-15 
128 1   1.3125000000e+01   1.3125000000e+01   8.7500000000e-01   6.6613381478e-16   2.2204460493e-16  -3.9968028887e-15 
216 1   9.6250000000e+00   9.6250000000e+00   4.3750000000e+00   1.9645743365e-16   1.3084016292e-15   5.4074583353e-16 
224 1   1.3125000000e+01   9.6250000000e+00   4.3750000000e+00   4.4408920985e-16  -9.1723503792e-17   8.5272500866e-16 
248 1   9.6250000000e+00   1.3125000000e+01   4.3750000000e+00  -3.0357660830e-17   4.4403499974e-16   8.0762219828e-16 
249 1   1.0500000000e+01   1.0500000000e+01   3.5000000000e+00   1.1449174941e-16   1.3080357110e-15   9.6624097612e-16 
252 1   1.2250000000e+01   1.2250000000e+01   3.5000000000e+00   2.2204460493e-16  -3.8857805862e-16   1.0443035325e-15 
253 1   1.1375000000e+01   1.1375000000e+01   4.3750000000e+00  -6.9388939039e-17  -2.0383000843e-16   1.3114509478e-15 
256 1   1.3125000000e+01   1.3125000000e+01   4.3750000000e+00   1.3322676296e-15   2.0261570199e-15   8.8817841970e-16 
130 1   0.0000000000e+00   1.7500000000e+00   5.2500000000e+00   0.0000000000e+00   6.8695049649e-16  -3.1571967263e-16 
131 1   1.7500000000e+00   0.0000000000e+00   5.2500000000e+00   4.5796699766e-16   8.8817841970e-16   3.0704605525e-16 
134 1   8.7500000000e-01   2.6250000000e+00   6.1250000000e+00  -4.4408920985e-16   2.5370330836e-16   1.7047994960e-15 
135 1   2.6250000000e+00   8.7500000000e-01   6.1250000000e+00   1.5222198502e-15   4.4408920985e-16   8.0838113981e-16 
138 1   3.5000000000e+00   1.7500000000e+00   5.2500000000e+00   1.1275702594e-16   8.3266726847e-17   4.3580861576e-16 
142 1   4.3750000000e+00   2.6250000000e+00   6.1250000000e+00   1.4174859203e-15   1.4519635494e-15   3.0485054585e-16 
163 1   1.7500000000e+00   3.5000000000e+00   5.2500000000e+00   2.3592239273e-16   2.9354773820e-16   9.2348275294e-16 
167 1   2.6250000000e+00   4.3750000000e+00   6.1250000000e+00   2.2985086057e-16   4.7485344649e-16   3.9302328753e-17 
257 1   0.0000000000e+00   0.0000000000e+00   7.0000000000e+00   0.0000000000e+00   5.5511151231e-16   8.8817841970e-16 
258 1   0.0000000000e+00   1.7500000000e+00   8.7500000000e+00   6.6613381478e-16   1.3877787808e-17   1.1622647289e-16 
259 1   1.7500000000e+00   0.0000000000e+00   8.7500000000e+00   1.3877787808e-16   0.0000000000e+00   2.3939183968e-16 
260 1   1.7500000000e+00   1.7500000000e+00   7.0000000000e+00   4.3021142204e-16  -6.2189836614e-16   1.1947907941e-16 
261 1   8.7500000000e-01   8.7500000000e-01   7.8750000000e+00   0.0000000000e+00  -4.4408920985e-16  -3.4694469520e-18 
264 1   2.6250000000e+00   2.6250000000e+00   7.8750000000e+00   8.4481033280e-16  -3.4689048509e-16  -4.1649626456e-16 
265 1   3.5000000000e+00   0.0000000000e+00   7.0000000000e+00   1.0525434690e-15  -4.4414341996e-16   1.5315439889e-15 
266 1   3.5000000000e+00   1.7500000000e+00   8.7500000000e+00   1.3652273756e-15   8.7430063189e-16   1.1402418723e-15 
269 1   4.3750000000e+00   8.7500000000e-01   7.8750000000e+00   4.4907653984e-16   1.3322676296e-15   5.5023260254e-18 
289 1   0.0000000000e+00   3.5000000000e+00   7.0000000000e+00  -4.4408920985e-16   1.5738278736e-15   1.5029210515e-15 
291 1   1.7500000000e+00   3.5000000000e+00   8.7500000000e+00   7.6327832943e-16   1.4559750974e-15   1.6279160095e-15 
293 1   8.7500000000e-01   4.3750000000e+00   7.8750000000e+00   1.3322676296e-15   4.6899875476e-16  -1.7558654183e-16 
297 1   3.5000000000e+00   3.5000000000e+00   7.0000000000e+00   7.8062556419e-16   8.9036037657e-16   3.4377340384e-16 
301 1   4.3750000000e+00   4.3750000000e+00   7.8750000000e+00   6.6884432021e-16   7.3053542382e-16   7.8967865233e-16 
139 1   5.2500000000e+00   0.0000000000e+00   5.2500000000e+00   3.4762232155e-16   4.4408920985e-16   1.1481158906e-15 
143 1   6.1250000000e+00   8.7500000000e-01   6.1250000000e+00   1.2814863103e-15   8.8817841970e-16   6.7721978199e-16 
146 1   7.0000000000e+00   1.7500000000e+00   5.2500000000e+00   2.0730352114e-15   8.3266726847e-17   7.9233494765e-16 
147 1   8.7500000000e+00   0.0000000000e+00   5.2500000000e+00   5.1336972867e-16   0.0000000000e+00   4.9773011233e-16 
150 1   7.8750000000e+00   2.6250000000e+00   6.1250000000e+00   1.2689095651e-15   1.0208847656e-15   2.4771309136e-16 
171 1   5.2500000000e+00   3.5000000000e+00   5.2500000000e+00   5.8254182728e-16  -2.8666305441e-16   4.0440741034e-16 
175 1   6.1250000000e+00   4.3750000000e+00   6.1250000000e+00   3.1351061070e-16   1.8735013541e-16   2.5972063042e-16 
179 1   8.7500000000e+00   3.5000000000e+00   5.2500000000e+00   1.0051638341e-15  -1.7694179455e-16  -3.2851325826e-17 
267 1   5.2500000000e+00   0.0000000000e+00   8.7500000000e+00   1.1450530194e-15   0.0000000000e+00   1.0923065837e-15 
268 1   5.2500000000e+00   1.7500000000e+00   7.0000000000e+00   8.2632468576e-16   8.1878948066e-16   1.3084151818e-15 
272 1   6.1250000000e+00   2.6250000000e+00   7.8750000000e+00   1.2590568779e-15  -6.0108168443e-16  -3.1333442785e-17 
273 1   7.0000000000e+00   0.0000000000e+00   7.0000000000e+00   3.8481045607e-16  -4.4408920985e-16   1.7661924440e-15 
274 1   7.0000000000e+00   1.7500000000e+00   8.7500000000e+00   1.7138796892e-15   9.2981178312e-16   6.0449692127e-16 
275 1   8.7500000000e+00   0.0000000000e+00   8.7500000000e+00  -6.3729403699e-16  -4.4408920985e-16   6.4946420637e-16 
276 1   8.7500000000e+00   1.7500000000e+00   7.0000000000e+00   1.6938490541e-15   7.6327832943e-16   1.9385805895e-15 
277 1   7.8750000000e+00   8.7500000000e-01   7.8750000000e+00  -3.2551814976e-16   1.3322676296e-15  -3.7207108054e-16 
299 1   5.2500000000e+00   3.5000000000e+00   8.7500000000e+00  -3.4220131069e-17   1.7928367124e-15   7.4132323544e-17 
305 1   7.0000000000e+00   3.5000000000e+00   7.0000000000e+00   1.7557298931e-16   1.1804793254e-15   1.3072496644e-15 
307 1   8.7500000000e+00   3.5000000000e+00   8.7500000000e+00  -6.4108874459e-16   9.1159718663e-16  -1.4563545682e-16 
309 1   7.8750000000e+00   4.3750000000e+00   7.8750000000e+00   1.2468324984e-16   1.9079789831e-15   3.7567605277e-17 
151 1   9.6250000000e+00   8.7500000000e-01   6.1250000000e+00  -3.7686867516e-16   4.4408920985e-16   6.0444271116e-18 
154 1   1.0500000000e+01   1.7500000000e+00   5.2500000000e+00   1.4077281008e-15   1.9428902931e-16   6.6514448029e-16 
155 1   1.2250000000e+01   0.0000000000e+00   5.2500000000e+00   2.2204460493e-16   2.2204460493e-16   2.2204460493e-16 
158 1   1.1375000000e+01   2.6250000000e+00   6.1250000000e+00   6.2450045135e-16   8.6194072713e-16   7.1840591202e-16 
159 1   1.3125000000e+01   8.7500000000e-01   6.1250000000e+00   6.6613381478e-16   2.2204460493e-16   1.1379786002e-15 
183 1   9.6250000000e+00   4.3750000000e+00   6.1250000000e+00   1.5525775110e-16   1.4801799109e-15   8.0367841288e-16 
187 1   1.2250000000e+01   3.5000000000e+00   5.2500000000e+00  -2.2204460493e-16  -3.3512689152e-16  -8.7833928498e-17 
191 1   1.3125000000e+01   4.3750000000e+00   6.1250000000e+00   8.8817841970e-16  -1.5823930707e-16  -9.7442670252e-17 
280 1   9.6250000000e+00   2.6250000000e+00   7.8750000000e+00   5.3256010712e-16  -4.4320829558e-16  -1.9163273399e-16 
281 1   1.0500000000e+01   0.0000000000e+00   7.0000000000e+00   1.0495077030e-16  -8.8839526013e-16   9.6439783243e-16 
282 1   1.0500000000e+01   1.7500000000e+00   8.7500000000e+00   9.9746599869e-16   2.3592239273e-16   3.7227436845e-16 
283 1   1.2250000000e+01   0.0000000000e+00   8.7500000000e+00  -2.2204460493e-16   2.2204460493e-15  -4.8572257327e-17 
284 1   1.2250000000e+01   1.7500000000e+00   7.0000000000e+00  -1.1102230246e-15  -8.3700407716e-16   7.9431361662e-16 